Title Card Required                                                     
Freq      RB3LYP                                                      6-31G(d,p)          
Number of atoms                            I                3
Info1-9                                    I   N=           9
          12          10        1001           0           0         100
           6          18        -502
Full Title                                 C   N=           2
Title Card Required     
Route                                      C   N=           6
#N Geom=AllCheck Guess=TCheck SCRF=Check GenChk RB3LYP/6-31G
(d,p) Freq  
Charge                                     I                0
Multiplicity                               I                1
Number of electrons                        I               22
Number of alpha electrons                  I               11
Number of beta electrons                   I               11
Number of basis functions                  I               45
Number of independent functions            I               45
Number of point charges in /Mol/           I                0
Number of translation vectors              I                0
Atomic numbers                             I   N=           3
           6           8           8
Nuclear charges                            R   N=           3
  6.00000000E+00  8.00000000E+00  8.00000000E+00
Current cartesian coordinates              R   N=           9
  0.00000000E+00  0.00000000E+00  0.00000000E+00  1.21597129E-16 -7.42421923E-17
  2.20938462E+00  1.81919953E-16  1.89720411E-16 -2.20938462E+00
Number of symbols in /Mol/                 I                0
Redundant internal dimensions              I   N=           4
           4           2           2           0
Redundant internal coordinate indices      I   N=          16
           1           2           0           0           1           3
           0           0           2           1           3          -5
           2           1           3          -7
Redundant internal coordinates             R   N=           4
  2.20938462E+00  2.20938462E+00  3.14159265E+00  3.14159265E+00
ZRed-IntVec                                I   N=           4
           0           0           0           0
ZRed-FPVec                                 R   N=           4
  0.00000000E+00  0.00000000E+00  0.00000000E+00  0.00000000E+00
ZRed-Constraint1                           R   N=           4
  2.20938462E+00  2.20938462E+00  3.14159265E+00  3.14159265E+00
ZRed-Constraint2                           R   N=           4
  2.37803136E+00  2.37803136E+00  3.14159318E+00  3.14159265E+00
Force Field                                I                0
Atom Types                                 C   N=           3
                                    
Int Atom Types                             I   N=           3
           0           0           0
MM charges                                 R   N=           3
  0.00000000E+00  0.00000000E+00  0.00000000E+00
Integer atomic weights                     I   N=           3
          12          16          16
Real atomic weights                        R   N=           3
  1.20000000E+01  1.59949146E+01  1.59949146E+01
Atom fragment info                         I   N=           3
           0           0           0
Atom residue num                           I   N=           3
           0           0           0
Nuclear spins                              I   N=           3
           0           0           0
Nuclear ZEff                               R   N=           3
 -3.60000000E+00 -5.60000000E+00 -5.60000000E+00
Nuclear ZNuc                               R   N=           3
  6.00000000E+00  8.00000000E+00  8.00000000E+00
Nuclear QMom                               R   N=           3
  0.00000000E+00  0.00000000E+00  0.00000000E+00
Nuclear GFac                               R   N=           3
  0.00000000E+00  0.00000000E+00  0.00000000E+00
MicOpt                                     I   N=           3
          -1          -1          -1
Number of residues                         I                0
Number of secondary structures             I                0
Number of contracted shells                I               12
Number of primitive shells                 I               33
Pure/Cartesian d shells                    I                1
Pure/Cartesian f shells                    I                0
Highest angular momentum                   I                2
Largest degree of contraction              I                6
Shell types                                I   N=          12
           0          -1          -1           2           0          -1
          -1           2           0          -1          -1           2
Number of primitives per shell             I   N=          12
           6           3           1           1           6           3
           1           1           6           3           1           1
Shell to atom map                          I   N=          12
           1           1           1           1           2           2
           2           2           3           3           3           3
Primitive exponents                        R   N=          33
  3.04752488E+03  4.57369518E+02  1.03948685E+02  2.92101553E+01  9.28666296E+00
  3.16392696E+00  7.86827235E+00  1.88128854E+00  5.44249258E-01  1.68714478E-01
  8.00000000E-01  5.48467166E+03  8.25234946E+02  1.88046958E+02  5.29645000E+01
  1.68975704E+01  5.79963534E+00  1.55396162E+01  3.59993359E+00  1.01376175E+00
  2.70005823E-01  8.00000000E-01  5.48467166E+03  8.25234946E+02  1.88046958E+02
  5.29645000E+01  1.68975704E+01  5.79963534E+00  1.55396162E+01  3.59993359E+00
  1.01376175E+00  2.70005823E-01  8.00000000E-01
Contraction coefficients                   R   N=          33
  1.83473713E-03  1.40373228E-02  6.88426223E-02  2.32184443E-01  4.67941348E-01
  3.62311985E-01 -1.19332420E-01 -1.60854152E-01  1.14345644E+00  1.00000000E+00
  1.00000000E+00  1.83107443E-03  1.39501722E-02  6.84450781E-02  2.32714336E-01
  4.70192898E-01  3.58520853E-01 -1.10777550E-01 -1.48026263E-01  1.13076702E+00
  1.00000000E+00  1.00000000E+00  1.83107443E-03  1.39501722E-02  6.84450781E-02
  2.32714336E-01  4.70192898E-01  3.58520853E-01 -1.10777550E-01 -1.48026263E-01
  1.13076702E+00  1.00000000E+00  1.00000000E+00
P(S=P) Contraction coefficients            R   N=          33
  0.00000000E+00  0.00000000E+00  0.00000000E+00  0.00000000E+00  0.00000000E+00
  0.00000000E+00  6.89990666E-02  3.16423961E-01  7.44308291E-01  1.00000000E+00
  0.00000000E+00  0.00000000E+00  0.00000000E+00  0.00000000E+00  0.00000000E+00
  0.00000000E+00  0.00000000E+00  7.08742682E-02  3.39752839E-01  7.27158577E-01
  1.00000000E+00  0.00000000E+00  0.00000000E+00  0.00000000E+00  0.00000000E+00
  0.00000000E+00  0.00000000E+00  0.00000000E+00  7.08742682E-02  3.39752839E-01
  7.27158577E-01  1.00000000E+00  0.00000000E+00
Coordinates of each shell                  R   N=          36
  0.00000000E+00  0.00000000E+00  0.00000000E+00  0.00000000E+00  0.00000000E+00
  0.00000000E+00  0.00000000E+00  0.00000000E+00  0.00000000E+00  0.00000000E+00
  0.00000000E+00  0.00000000E+00  9.51633842E-17 -5.96082960E-17  2.20938462E+00
  9.51633842E-17 -5.96082960E-17  2.20938462E+00  9.51633842E-17 -5.96082960E-17
  2.20938462E+00  9.51633842E-17 -5.96082960E-17  2.20938462E+00  3.72648510E-17
 -1.55458497E-16 -2.20938462E+00  3.72648510E-17 -1.55458497E-16 -2.20938462E+00
  3.72648510E-17 -1.55458497E-16 -2.20938462E+00  3.72648510E-17 -1.55458497E-16
 -2.20938462E+00
Constraint Structure                       R   N=           9
  0.00000000E+00  0.00000000E+00  0.00000000E+00  9.51633842E-17 -5.96082960E-17
  2.20938462E+00  3.72648510E-17 -1.55458497E-16 -2.20938462E+00
Num ILSW                                   I              100
ILSW                                       I   N=         100
           0           1           0           0           2           0
           0           0           3           0         402          -1
           0           0           0           0           2           0
           0           0           1           0           1           0
           1           0           0           0           0           0
           0           0      100000           0          -1           0
           0           0           0           0           0           0
           0           0           0           1           0           0
           0           0           1           0           0           0
           0           0           4          41           0           0
           0           0           5           0           0           0
           0           0           0           0           0           0
           0           0           0           0           0           0
           0           0           0           0           0           0
           0           0           0           0           0           0
           0           0           0           0           0           0
           0           0           0           0
Num RLSW                                   I               41
RLSW                                       R   N=          41
  8.00000000E-01  7.20000000E-01  1.00000000E+00  8.10000000E-01  2.00000000E-01
  0.00000000E+00  0.00000000E+00  1.00000000E+00  0.00000000E+00  0.00000000E+00
  0.00000000E+00  0.00000000E+00  1.00000000E+00  0.00000000E+00  0.00000000E+00
  0.00000000E+00  0.00000000E+00  1.00000000E+00  0.00000000E+00  0.00000000E+00
  0.00000000E+00  0.00000000E+00  1.00000000E+00  0.00000000E+00  0.00000000E+00
  0.00000000E+00  0.00000000E+00  1.00000000E+00  0.00000000E+00  0.00000000E+00
  0.00000000E+00  0.00000000E+00  1.00000000E+00  0.00000000E+00  0.00000000E+00
  0.00000000E+00  0.00000000E+00  0.00000000E+00  1.00000000E+00  1.00000000E+00
  0.00000000E+00
MxBond                                     I                2
NBond                                      I   N=           3
           2           1           1
IBond                                      I   N=           6
           2           3           1           0           1           0
RBond                                      R   N=           6
  2.00000000E+00  2.00000000E+00  2.00000000E+00  0.00000000E+00  2.00000000E+00
  0.00000000E+00
Virial Ratio                               R      2.008906592118664E+00
SCF Energy                                 R     -1.885809402231420E+02
Total Energy                               R     -1.885809402231420E+02
RMS Force                                  R      1.111746341873423E-05
RMS Density                                R      1.358882344964663E-09
External E-field                           R   N=          35
  0.00000000E+00  0.00000000E+00  0.00000000E+00  0.00000000E+00  0.00000000E+00
  0.00000000E+00  0.00000000E+00  0.00000000E+00  0.00000000E+00  0.00000000E+00
  0.00000000E+00  0.00000000E+00  0.00000000E+00  0.00000000E+00  0.00000000E+00
  0.00000000E+00  0.00000000E+00  0.00000000E+00  0.00000000E+00  0.00000000E+00
  0.00000000E+00  0.00000000E+00  0.00000000E+00  0.00000000E+00  0.00000000E+00
  0.00000000E+00  0.00000000E+00  0.00000000E+00  0.00000000E+00  0.00000000E+00
  0.00000000E+00  0.00000000E+00  0.00000000E+00  0.00000000E+00  0.00000000E+00
IOpCl                                      I                0
IROHF                                      I                0
Alpha Orbital Energies                     R   N=          45
 -1.92365910E+01 -1.92365839E+01 -1.03852951E+01 -1.16098147E+00 -1.11964000E+00
 -5.62334265E-01 -5.16548970E-01 -5.12769265E-01 -5.12769265E-01 -3.69968600E-01
 -3.69968600E-01  2.99180175E-02  2.99180175E-02  8.43377370E-02  3.65774701E-01
  4.72601672E-01  4.72601672E-01  5.84351251E-01  7.35252812E-01  7.81542342E-01
  8.74193824E-01  8.74193824E-01  1.03774807E+00  1.04165380E+00  1.04165380E+00
  1.37742001E+00  1.39387518E+00  1.39388045E+00  1.40640661E+00  1.40640661E+00
  1.72627674E+00  1.72627698E+00  1.83356273E+00  2.02761059E+00  2.02761551E+00
  2.12106055E+00  2.12106055E+00  2.72075320E+00  2.91522887E+00  2.95401308E+00
  2.95401308E+00  3.04931779E+00  3.74169348E+00  4.38894619E+00  4.45002968E+00
Alpha MO coefficients                      R   N=        2025
 -1.43392130E-04  1.57522358E-04  0.00000000E+00  0.00000000E+00  0.00000000E+00
 -5.36247639E-03  0.00000000E+00  0.00000000E+00  0.00000000E+00 -5.29253061E-05
 -5.29253061E-05 -3.21224997E-03  0.00000000E+00  0.00000000E+00  0.00000000E+00
  7.02039197E-01  1.85520823E-02  0.00000000E+00  0.00000000E+00 -1.64726452E-03
  9.64852969E-03  0.00000000E+00  0.00000000E+00 -1.94158059E-03 -5.77610449E-03
 -5.77610449E-03 -4.32149426E-03  0.00000000E+00  0.00000000E+00  0.00000000E+00
  7.02039197E-01  1.85520823E-02  0.00000000E+00  0.00000000E+00  1.64726452E-03
  9.64852969E-03  0.00000000E+00  0.00000000E+00  1.94158059E-03 -5.77610449E-03
 -5.77610449E-03 -4.32149426E-03  0.00000000E+00  0.00000000E+00  0.00000000E+00
  0.00000000E+00  0.00000000E+00  0.00000000E+00  0.00000000E+00 -1.52080809E-04
  0.00000000E+00  0.00000000E+00  0.00000000E+00 -7.29605872E-03  0.00000000E+00
  0.00000000E+00  0.00000000E+00  0.00000000E+00  0.00000000E+00  0.00000000E+00
  7.01822784E-01  1.74468802E-02  0.00000000E+00  0.00000000E+00 -8.21566459E-04
  1.42910911E-02  0.00000000E+00  0.00000000E+00 -1.78117605E-03 -6.18368397E-03
 -6.18368397E-03 -5.92666285E-03  0.00000000E+00  0.00000000E+00  0.00000000E+00
 -7.01822784E-01 -1.74468802E-02  0.00000000E+00  0.00000000E+00 -8.21566459E-04
 -1.42910911E-02  0.00000000E+00  0.00000000E+00 -1.78117605E-03  6.18368397E-03
  6.18368397E-03  5.92666285E-03  0.00000000E+00  0.00000000E+00  0.00000000E+00
  9.92807364E-01  4.95432630E-02  0.00000000E+00  0.00000000E+00  0.00000000E+00
 -7.50965608E-04  0.00000000E+00  0.00000000E+00  0.00000000E+00 -1.04291969E-02
 -1.04291969E-02 -6.33326973E-03  0.00000000E+00  0.00000000E+00  0.00000000E+00
 -2.73924931E-04  9.87191773E-05  0.00000000E+00  0.00000000E+00  4.62353378E-04
 -3.24300059E-03  0.00000000E+00  0.00000000E+00  2.93971688E-03  3.42500249E-04
  3.42500249E-04 -9.31395157E-04  0.00000000E+00  0.00000000E+00  0.00000000E+00
 -2.73924931E-04  9.87191773E-05  0.00000000E+00  0.00000000E+00 -4.62353378E-04
 -3.24300059E-03  0.00000000E+00  0.00000000E+00 -2.93971688E-03  3.42500249E-04
  3.42500249E-04 -9.31395157E-04  0.00000000E+00  0.00000000E+00  0.00000000E+00
 -1.56733940E-01  3.02049814E-01  0.00000000E+00  0.00000000E+00  0.00000000E+00
  3.94305336E-02  0.00000000E+00  0.00000000E+00  0.00000000E+00 -2.96060840E-02
 -2.96060840E-02  3.05789387E-02  0.00000000E+00  0.00000000E+00  0.00000000E+00
 -1.34762397E-01  2.91123517E-01  0.00000000E+00  0.00000000E+00 -1.25692087E-01
  2.65383044E-01  0.00000000E+00  0.00000000E+00 -5.38496800E-02 -7.69005552E-03
 -7.69005552E-03  1.18897737E-02  0.00000000E+00  0.00000000E+00  0.00000000E+00
 -1.34762397E-01  2.91123517E-01  0.00000000E+00  0.00000000E+00  1.25692087E-01
  2.65383044E-01  0.00000000E+00  0.00000000E+00  5.38496800E-02 -7.69005552E-03
 -7.69005552E-03  1.18897737E-02  0.00000000E+00  0.00000000E+00  0.00000000E+00
  0.00000000E+00  0.00000000E+00  0.00000000E+00  0.00000000E+00  3.36399600E-01
  0.00000000E+00  0.00000000E+00  0.00000000E+00 -1.92363272E-02  0.00000000E+00
  0.00000000E+00  0.00000000E+00  0.00000000E+00  0.00000000E+00  0.00000000E+00
 -1.46886812E-01  3.25410833E-01  0.00000000E+00  0.00000000E+00 -1.30064422E-01
  2.69822202E-01  0.00000000E+00  0.00000000E+00 -2.20495848E-02 -5.32858117E-03
 -5.32858117E-03  7.20986795E-03  0.00000000E+00  0.00000000E+00  0.00000000E+00
  1.46886812E-01 -3.25410833E-01  0.00000000E+00  0.00000000E+00 -1.30064422E-01
 -2.69822202E-01  0.00000000E+00  0.00000000E+00 -2.20495848E-02  5.32858117E-03
  5.32858117E-03 -7.20986795E-03  0.00000000E+00  0.00000000E+00  0.00000000E+00
  1.35278104E-01 -3.14983302E-01  0.00000000E+00  0.00000000E+00  0.00000000E+00
 -1.89943371E-01  0.00000000E+00  0.00000000E+00  0.00000000E+00  1.20909324E-02
  1.20909324E-02  2.32604080E-02  0.00000000E+00  0.00000000E+00  0.00000000E+00
 -9.48762599E-02  2.11856399E-01  0.00000000E+00  0.00000000E+00  3.30474967E-01
  3.42660113E-01  0.00000000E+00  0.00000000E+00  1.72813338E-01  2.66662465E-03
  2.66662465E-03 -3.34737289E-02  0.00000000E+00  0.00000000E+00  0.00000000E+00
 -9.48762599E-02  2.11856399E-01  0.00000000E+00  0.00000000E+00 -3.30474967E-01
  3.42660113E-01  0.00000000E+00  0.00000000E+00 -1.72813338E-01  2.66662465E-03
  2.66662465E-03 -3.34737289E-02  0.00000000E+00  0.00000000E+00  0.00000000E+00
  0.00000000E+00  0.00000000E+00  0.00000000E+00  0.00000000E+00 -3.51222096E-01
  0.00000000E+00  0.00000000E+00  0.00000000E+00 -2.04798713E-04  0.00000000E+00
  0.00000000E+00  0.00000000E+00  0.00000000E+00  0.00000000E+00  0.00000000E+00
 -7.14767747E-02  1.56545045E-01  0.00000000E+00  0.00000000E+00  3.93471769E-01
  2.92110038E-01  0.00000000E+00  0.00000000E+00  1.82267310E-01  2.21248829E-03
  2.21248829E-03 -2.42602570E-02  0.00000000E+00  0.00000000E+00  0.00000000E+00
  7.14767747E-02 -1.56545045E-01  0.00000000E+00  0.00000000E+00  3.93471769E-01
 -2.92110038E-01  0.00000000E+00  0.00000000E+00  1.82267310E-01 -2.21248829E-03
 -2.21248829E-03  2.42602570E-02  0.00000000E+00  0.00000000E+00  0.00000000E+00
  0.00000000E+00  0.00000000E+00  4.01586352E-01  0.00000000E+00  0.00000000E+00
  0.00000000E+00  1.58361474E-01  0.00000000E+00  0.00000000E+00  0.00000000E+00
  0.00000000E+00  0.00000000E+00  0.00000000E+00  0.00000000E+00  0.00000000E+00
  0.00000000E+00  0.00000000E+00  3.51854492E-01  0.00000000E+00  0.00000000E+00
  0.00000000E+00  1.92659054E-01  0.00000000E+00  0.00000000E+00  0.00000000E+00
  0.00000000E+00  0.00000000E+00  0.00000000E+00 -2.88294242E-02  0.00000000E+00
  0.00000000E+00  0.00000000E+00  3.51854492E-01  0.00000000E+00  0.00000000E+00
  0.00000000E+00  1.92659054E-01  0.00000000E+00  0.00000000E+00  0.00000000E+00
  0.00000000E+00  0.00000000E+00  0.00000000E+00  2.88294242E-02  0.00000000E+00
  0.00000000E+00  0.00000000E+00  0.00000000E+00  4.01586352E-01  0.00000000E+00
  0.00000000E+00  0.00000000E+00  1.58361474E-01  0.00000000E+00  0.00000000E+00
  0.00000000E+00  0.00000000E+00  0.00000000E+00  0.00000000E+00  0.00000000E+00
  0.00000000E+00  0.00000000E+00  0.00000000E+00  3.51854492E-01  0.00000000E+00
  0.00000000E+00  0.00000000E+00  1.92659054E-01  0.00000000E+00  0.00000000E+00
  0.00000000E+00  0.00000000E+00  0.00000000E+00  0.00000000E+00 -2.88294242E-02
  0.00000000E+00  0.00000000E+00  0.00000000E+00  3.51854492E-01  0.00000000E+00
  0.00000000E+00  0.00000000E+00  1.92659054E-01  0.00000000E+00  0.00000000E+00
  0.00000000E+00  0.00000000E+00  0.00000000E+00  0.00000000E+00  2.88294242E-02
  0.00000000E+00  0.00000000E+00  0.00000000E+00  0.00000000E+00  0.00000000E+00
  0.00000000E+00  0.00000000E+00  0.00000000E+00  0.00000000E+00  0.00000000E+00
  0.00000000E+00  0.00000000E+00  0.00000000E+00  5.77091676E-02  0.00000000E+00
  0.00000000E+00  0.00000000E+00  4.72517873E-01  0.00000000E+00  0.00000000E+00
  0.00000000E+00  3.27902542E-01  0.00000000E+00  0.00000000E+00  0.00000000E+00
  0.00000000E+00  0.00000000E+00  0.00000000E+00 -2.23514827E-02  0.00000000E+00
  0.00000000E+00  0.00000000E+00 -4.72517873E-01  0.00000000E+00  0.00000000E+00
  0.00000000E+00 -3.27902542E-01  0.00000000E+00  0.00000000E+00  0.00000000E+00
  0.00000000E+00  0.00000000E+00  0.00000000E+00 -2.23514827E-02  0.00000000E+00
  0.00000000E+00  0.00000000E+00  0.00000000E+00  0.00000000E+00  0.00000000E+00
  0.00000000E+00  0.00000000E+00  0.00000000E+00  0.00000000E+00  0.00000000E+00
  0.00000000E+00  0.00000000E+00  0.00000000E+00  0.00000000E+00  5.77091676E-02
  0.00000000E+00  0.00000000E+00  0.00000000E+00  4.72517873E-01  0.00000000E+00
  0.00000000E+00  0.00000000E+00  3.27902542E-01  0.00000000E+00  0.00000000E+00
  0.00000000E+00  0.00000000E+00  0.00000000E+00  0.00000000E+00 -2.23514827E-02
  0.00000000E+00  0.00000000E+00  0.00000000E+00 -4.72517873E-01  0.00000000E+00
  0.00000000E+00  0.00000000E+00 -3.27902542E-01  0.00000000E+00  0.00000000E+00
  0.00000000E+00  0.00000000E+00  0.00000000E+00  0.00000000E+00 -2.23514827E-02
  0.00000000E+00  0.00000000E+00  6.00118553E-01  0.00000000E+00  0.00000000E+00
  0.00000000E+00  5.95381769E-01  0.00000000E+00  0.00000000E+00  0.00000000E+00
  0.00000000E+00  0.00000000E+00  0.00000000E+00  0.00000000E+00  0.00000000E+00
  0.00000000E+00  0.00000000E+00 -3.76408977E-01  0.00000000E+00  0.00000000E+00
  0.00000000E+00 -3.92600551E-01  0.00000000E+00  0.00000000E+00  0.00000000E+00
  0.00000000E+00  0.00000000E+00  0.00000000E+00 -1.48231056E-02  0.00000000E+00
  0.00000000E+00  0.00000000E+00 -3.76408977E-01  0.00000000E+00  0.00000000E+00
  0.00000000E+00 -3.92600551E-01  0.00000000E+00  0.00000000E+00  0.00000000E+00
  0.00000000E+00  0.00000000E+00  0.00000000E+00  1.48231056E-02  0.00000000E+00
  0.00000000E+00  0.00000000E+00  0.00000000E+00  6.00118553E-01  0.00000000E+00
  0.00000000E+00  0.00000000E+00  5.95381769E-01  0.00000000E+00  0.00000000E+00
  0.00000000E+00  0.00000000E+00  0.00000000E+00  0.00000000E+00  0.00000000E+00
  0.00000000E+00  0.00000000E+00  0.00000000E+00 -3.76408977E-01  0.00000000E+00
  0.00000000E+00  0.00000000E+00 -3.92600551E-01  0.00000000E+00  0.00000000E+00
  0.00000000E+00  0.00000000E+00  0.00000000E+00  0.00000000E+00 -1.48231056E-02
  0.00000000E+00  0.00000000E+00  0.00000000E+00 -3.76408977E-01  0.00000000E+00
  0.00000000E+00  0.00000000E+00 -3.92600551E-01  0.00000000E+00  0.00000000E+00
  0.00000000E+00  0.00000000E+00  0.00000000E+00  0.00000000E+00  1.48231056E-02
 -9.95475136E-02  6.38425489E-02  0.00000000E+00  0.00000000E+00  0.00000000E+00
  2.23065896E+00  0.00000000E+00  0.00000000E+00  0.00000000E+00  2.10656964E-02
  2.10656964E-02 -4.07504691E-02  0.00000000E+00  0.00000000E+00  0.00000000E+00
  7.59894627E-02 -1.74673395E-01  0.00000000E+00  0.00000000E+00  2.98209254E-01
 -8.68086484E-01  0.00000000E+00  0.00000000E+00  5.58710361E-01  2.16614917E-02
  2.16614917E-02 -3.12437884E-02  0.00000000E+00  0.00000000E+00  0.00000000E+00
  7.59894627E-02 -1.74673395E-01  0.00000000E+00  0.00000000E+00 -2.98209254E-01
 -8.68086484E-01  0.00000000E+00  0.00000000E+00 -5.58710361E-01  2.16614917E-02
  2.16614917E-02 -3.12437884E-02  0.00000000E+00  0.00000000E+00  0.00000000E+00
  0.00000000E+00  0.00000000E+00  0.00000000E+00  0.00000000E+00  6.57334596E-02
  0.00000000E+00  0.00000000E+00  0.00000000E+00  4.14224656E+00  0.00000000E+00
  0.00000000E+00  0.00000000E+00  0.00000000E+00  0.00000000E+00  0.00000000E+00
  1.02538741E-01 -2.54366383E-02  0.00000000E+00  0.00000000E+00 -9.50626342E-02
 -3.00068474E+00  0.00000000E+00  0.00000000E+00  8.75292695E-01  8.15868712E-02
  8.15868712E-02  8.27791076E-03  0.00000000E+00  0.00000000E+00  0.00000000E+00
 -1.02538741E-01  2.54366383E-02  0.00000000E+00  0.00000000E+00 -9.50626342E-02
  3.00068474E+00  0.00000000E+00  0.00000000E+00  8.75292695E-01 -8.15868712E-02
 -8.15868712E-02 -8.27791076E-03  0.00000000E+00  0.00000000E+00  0.00000000E+00
  0.00000000E+00  0.00000000E+00 -9.25629408E-01  0.00000000E+00  0.00000000E+00
  0.00000000E+00  1.31072857E+00  0.00000000E+00  0.00000000E+00  0.00000000E+00
  0.00000000E+00  0.00000000E+00  0.00000000E+00  0.00000000E+00  0.00000000E+00
  0.00000000E+00  0.00000000E+00 -1.18367153E-01  0.00000000E+00  0.00000000E+00
  0.00000000E+00 -1.39649117E-01  0.00000000E+00  0.00000000E+00  0.00000000E+00
  0.00000000E+00  0.00000000E+00  0.00000000E+00  6.16577961E-02  0.00000000E+00
  0.00000000E+00  0.00000000E+00 -1.18367153E-01  0.00000000E+00  0.00000000E+00
  0.00000000E+00 -1.39649117E-01  0.00000000E+00  0.00000000E+00  0.00000000E+00
  0.00000000E+00  0.00000000E+00  0.00000000E+00 -6.16577961E-02  0.00000000E+00
  0.00000000E+00  0.00000000E+00  0.00000000E+00 -9.25629408E-01  0.00000000E+00
  0.00000000E+00  0.00000000E+00  1.31072857E+00  0.00000000E+00  0.00000000E+00
  0.00000000E+00  0.00000000E+00  0.00000000E+00  0.00000000E+00  0.00000000E+00
  0.00000000E+00  0.00000000E+00  0.00000000E+00 -1.18367153E-01  0.00000000E+00
  0.00000000E+00  0.00000000E+00 -1.39649117E-01  0.00000000E+00  0.00000000E+00
  0.00000000E+00  0.00000000E+00  0.00000000E+00  0.00000000E+00  6.16577961E-02
  0.00000000E+00  0.00000000E+00  0.00000000E+00 -1.18367153E-01  0.00000000E+00
  0.00000000E+00  0.00000000E+00 -1.39649117E-01  0.00000000E+00  0.00000000E+00
  0.00000000E+00  0.00000000E+00  0.00000000E+00  0.00000000E+00 -6.16577961E-02
  1.28759583E-01 -1.11261504E+00  0.00000000E+00  0.00000000E+00  0.00000000E+00
  2.06608458E+00  0.00000000E+00  0.00000000E+00  0.00000000E+00 -1.49846698E-01
 -1.49846698E-01  3.03241509E-01  0.00000000E+00  0.00000000E+00  0.00000000E+00
 -1.04576776E-02  1.19148327E-02  0.00000000E+00  0.00000000E+00 -3.78569976E-01
 -5.36654611E-01  0.00000000E+00  0.00000000E+00  4.49224371E-01  4.12375338E-02
  4.12375338E-02 -2.26024593E-01  0.00000000E+00  0.00000000E+00  0.00000000E+00
 -1.04576776E-02  1.19148327E-02  0.00000000E+00  0.00000000E+00  3.78569976E-01
 -5.36654611E-01  0.00000000E+00  0.00000000E+00 -4.49224371E-01  4.12375338E-02
  4.12375338E-02 -2.26024593E-01  0.00000000E+00  0.00000000E+00  0.00000000E+00
  0.00000000E+00  0.00000000E+00  0.00000000E+00  0.00000000E+00  1.09231546E+00
  0.00000000E+00  0.00000000E+00  0.00000000E+00 -1.98554720E-01  0.00000000E+00
  0.00000000E+00  0.00000000E+00  0.00000000E+00  0.00000000E+00  0.00000000E+00
  4.52438289E-02 -2.49882449E-01  0.00000000E+00  0.00000000E+00 -1.08977285E-02
 -1.20303196E-01  0.00000000E+00  0.00000000E+00  8.61745898E-01 -9.61779597E-02
 -9.61779597E-02  5.88924229E-02  0.00000000E+00  0.00000000E+00  0.00000000E+00
 -4.52438289E-02  2.49882449E-01  0.00000000E+00  0.00000000E+00 -1.08977285E-02
  1.20303196E-01  0.00000000E+00  0.00000000E+00  8.61745898E-01  9.61779597E-02
  9.61779597E-02 -5.88924229E-02  0.00000000E+00  0.00000000E+00  0.00000000E+00
  5.26205231E-02  1.07544595E+00  0.00000000E+00  0.00000000E+00  0.00000000E+00
  1.65587818E-02  0.00000000E+00  0.00000000E+00  0.00000000E+00 -1.37721445E-02
 -1.37721445E-02  3.43944211E-01  0.00000000E+00  0.00000000E+00  0.00000000E+00
  1.43742974E-02 -3.78010296E-01  0.00000000E+00  0.00000000E+00 -3.27453118E-01
  2.55249336E-01  0.00000000E+00  0.00000000E+00  1.00498741E+00 -1.27851256E-01
 -1.27851256E-01 -1.98269229E-01  0.00000000E+00  0.00000000E+00  0.00000000E+00
  1.43742974E-02 -3.78010296E-01  0.00000000E+00  0.00000000E+00  3.27453118E-01
  2.55249336E-01  0.00000000E+00  0.00000000E+00 -1.00498741E+00 -1.27851256E-01
 -1.27851256E-01 -1.98269229E-01  0.00000000E+00  0.00000000E+00  0.00000000E+00
  0.00000000E+00  0.00000000E+00  0.00000000E+00  0.00000000E+00  0.00000000E+00
  0.00000000E+00  0.00000000E+00  0.00000000E+00  0.00000000E+00  0.00000000E+00
  0.00000000E+00  0.00000000E+00  0.00000000E+00 -1.32557866E-01  0.00000000E+00
  0.00000000E+00  0.00000000E+00 -6.48286355E-01  0.00000000E+00  0.00000000E+00
  0.00000000E+00  8.11503449E-01  0.00000000E+00  0.00000000E+00  0.00000000E+00
  0.00000000E+00  0.00000000E+00  0.00000000E+00  7.53251791E-03  0.00000000E+00
  0.00000000E+00  0.00000000E+00  6.48286355E-01  0.00000000E+00  0.00000000E+00
  0.00000000E+00 -8.11503449E-01  0.00000000E+00  0.00000000E+00  0.00000000E+00
  0.00000000E+00  0.00000000E+00  0.00000000E+00  7.53251791E-03  0.00000000E+00
  0.00000000E+00  0.00000000E+00  0.00000000E+00  0.00000000E+00  0.00000000E+00
  0.00000000E+00  0.00000000E+00  0.00000000E+00  0.00000000E+00  0.00000000E+00
  0.00000000E+00  0.00000000E+00  0.00000000E+00  0.00000000E+00 -1.32557866E-01
  0.00000000E+00  0.00000000E+00  0.00000000E+00 -6.48286355E-01  0.00000000E+00
  0.00000000E+00  0.00000000E+00  8.11503449E-01  0.00000000E+00  0.00000000E+00
  0.00000000E+00  0.00000000E+00  0.00000000E+00  0.00000000E+00  7.53251791E-03
  0.00000000E+00  0.00000000E+00  0.00000000E+00  6.48286355E-01  0.00000000E+00
  0.00000000E+00  0.00000000E+00 -8.11503449E-01  0.00000000E+00  0.00000000E+00
  0.00000000E+00  0.00000000E+00  0.00000000E+00  0.00000000E+00  7.53251791E-03
  0.00000000E+00  0.00000000E+00  0.00000000E+00  0.00000000E+00 -5.54345449E-01
  0.00000000E+00  0.00000000E+00  0.00000000E+00 -9.52816900E-01  0.00000000E+00
  0.00000000E+00  0.00000000E+00  0.00000000E+00  0.00000000E+00  0.00000000E+00
 -5.03232646E-02  1.92735686E-02  0.00000000E+00  0.00000000E+00 -7.38432921E-01
  1.01715154E+00  0.00000000E+00  0.00000000E+00  4.04283914E-01 -4.19772300E-02
 -4.19772300E-02 -1.62795402E-01  0.00000000E+00  0.00000000E+00  0.00000000E+00
  5.03232646E-02 -1.92735686E-02  0.00000000E+00  0.00000000E+00 -7.38432921E-01
 -1.01715154E+00  0.00000000E+00  0.00000000E+00  4.04283914E-01  4.19772300E-02
  4.19772300E-02  1.62795402E-01  0.00000000E+00  0.00000000E+00  0.00000000E+00
  0.00000000E+00  0.00000000E+00  1.81292967E-01  0.00000000E+00  0.00000000E+00
  0.00000000E+00 -1.05024353E+00  0.00000000E+00  0.00000000E+00  0.00000000E+00
  0.00000000E+00  0.00000000E+00  0.00000000E+00  0.00000000E+00  0.00000000E+00
  0.00000000E+00  0.00000000E+00 -6.43342814E-01  0.00000000E+00  0.00000000E+00
  0.00000000E+00  1.11582152E+00  0.00000000E+00  0.00000000E+00  0.00000000E+00
  0.00000000E+00  0.00000000E+00  0.00000000E+00  7.42838795E-02  0.00000000E+00
  0.00000000E+00  0.00000000E+00 -6.43342814E-01  0.00000000E+00  0.00000000E+00
  0.00000000E+00  1.11582152E+00  0.00000000E+00  0.00000000E+00  0.00000000E+00
  0.00000000E+00  0.00000000E+00  0.00000000E+00 -7.42838795E-02  0.00000000E+00
  0.00000000E+00  0.00000000E+00  0.00000000E+00  1.81292967E-01  0.00000000E+00